Peptide, ligand, water and ions
  308
    1MET      N    1   3.542   2.703   3.074
    1MET     H1    2   3.482   2.733   3.000
    1MET     H2    3   3.589   2.619   3.046
    1MET     H3    4   3.488   2.686   3.156
    1MET     CA    5   3.641   2.807   3.101
    1MET     HA    6   3.587   2.888   3.129
    1MET     CB    7   3.734   2.764   3.214
    1MET    HB1    8   3.802   2.835   3.228
    1MET    HB2    9   3.780   2.679   3.186
    1MET     CG   10   3.664   2.737   3.347
    1MET    HG1   11   3.736   2.704   3.408
    1MET    HG2   12   3.599   2.663   3.328
    1MET     SD   13   3.582   2.884   3.412
    1MET     CE   14   3.723   2.986   3.455
    1MET    HE1   15   3.691   3.072   3.493
    1MET    HE2   16   3.779   2.938   3.522
    1MET    HE3   17   3.777   3.004   3.373
    1MET      C   18   3.721   2.842   2.977
    1MET      O   19   3.767   2.753   2.905
    2SER      N   20   3.738   2.971   2.951
    2SER      H   21   3.699   3.038   3.014
    2SER     CA   22   3.813   3.017   2.835
    2SER     HA   23   3.786   2.957   2.759
    2SER     CB   24   3.775   3.160   2.802
    2SER    HB1   25   3.676   3.169   2.794
    2SER    HB2   26   3.819   3.189   2.717
    2SER     OG   27   3.817   3.249   2.902
    2SER     HG   28   3.790   3.342   2.876
    2SER      C   29   3.963   3.005   2.857
    2SER      O   30   4.010   3.006   2.971
    3GLY      N   31   4.038   2.994   2.748
    3GLY      H   32   3.993   2.988   2.659
    3GLY     CA   33   4.184   2.989   2.755
    3GLY    HA1   34   4.214   2.906   2.710
    3GLY    HA2   35   4.210   2.987   2.852
    3GLY      C   36   4.246   3.111   2.688
    3GLY      O   37   4.188   3.168   2.595
    4LYS      N   38   4.364   3.150   2.735
    4LYS      H   39   4.407   3.098   2.808
    4LYS     CA   40   4.433   3.267   2.681
    4LYS     HA   41   4.360   3.332   2.659
    4LYS     CB   42   4.527   3.326   2.786
    4LYS    HB1   43   4.582   3.397   2.742
    4LYS    HB2   44   4.587   3.253   2.819
    4LYS     CG   45   4.457   3.387   2.906
    4LYS    HG1   46   4.403   3.317   2.952
    4LYS    HG2   47   4.396   3.460   2.875
    4LYS     CD   48   4.557   3.445   3.005
    4LYS    HD1   49   4.609   3.518   2.960
    4LYS    HD2   50   4.619   3.373   3.034
    4LYS     CE   51   4.487   3.503   3.128
    4LYS    HE1   52   4.435   3.430   3.173
    4LYS    HE2   53   4.425   3.576   3.099
    4LYS     NZ   54   4.584   3.559   3.225
    4LYS    HZ1   55   4.534   3.596   3.304
    4LYS    HZ2   56   4.646   3.487   3.256
    4LYS    HZ3   57   4.636   3.633   3.182
    4LYS      C   58   4.510   3.232   2.555
    4LYS      O   59   4.575   3.128   2.547
    5MET      N   60   4.503   3.320   2.455
    5MET      H   61   4.448   3.403   2.468
    5MET     CA   62   4.573   3.299   2.329
    5MET     HA   63   4.663   3.264   2.354
    5MET     CB   64   4.497   3.198   2.243
    5MET    HB1   65   4.419   3.244   2.202
    5MET    HB2   66   4.465   3.124   2.302
    5MET     CG   67   4.580   3.136   2.132
    5MET    HG1   68   4.657   3.091   2.178
    5MET    HG2   69   4.614   3.213   2.079
    5MET     SD   70   4.485   3.020   2.030
    5MET     CE   71   4.459   2.887   2.147
    5MET    HE1   72   4.406   2.815   2.103
    5MET    HE2   73   4.547   2.851   2.177
    5MET    HE3   74   4.408   2.922   2.226
    5MET      C   75   4.590   3.430   2.253
    5MET      O   76   4.507   3.521   2.265
    6THR      N   77   4.697   3.440   2.176
    6THR      H   78   4.764   3.365   2.177
    6THR     CA   79   4.720   3.555   2.089
    6THR     HA   80   4.653   3.622   2.121
    6THR     CB   81   4.863   3.609   2.104
    6THR     HB   82   4.876   3.690   2.047
    6THR    CG2   83   4.892   3.644   2.250
    6THR   HG21   84   4.985   3.679   2.257
    6THR   HG22   85   4.827   3.714   2.281
    6THR   HG23   86   4.882   3.562   2.306
    6THR    OG1   87   4.957   3.511   2.059
    6THR    HG1   88   5.050   3.547   2.069
    6THR      C   89   4.695   3.520   1.943
    6THR      O   90   4.689   3.403   1.906
    7GLY      N   91   4.680   3.623   1.860
    7GLY      H   92   4.685   3.716   1.896
    7GLY     CA   93   4.655   3.603   1.718
    7GLY    HA1   94   4.564   3.562   1.707
    7GLY    HA2   95   4.724   3.540   1.683
    7GLY      C   96   4.662   3.735   1.642
    7GLY      O   97   4.695   3.839   1.699
    8ILE      N   98   4.631   3.730   1.513
    8ILE      H   99   4.606   3.642   1.472
    8ILE     CA  100   4.633   3.849   1.429
    8ILE     HA  101   4.662   3.922   1.492
    8ILE     CB  102   4.733   3.835   1.313
    8ILE     HB  103   4.708   3.754   1.259
    8ILE    CG2  104   4.725   3.956   1.221
    8ILE   HG21  105   4.790   3.945   1.146
    8ILE   HG22  106   4.633   3.964   1.184
    8ILE   HG23  107   4.748   4.039   1.273
    8ILE    CG1  108   4.875   3.816   1.366
    8ILE   HG11  109   4.874   3.745   1.436
    8ILE   HG12  110   4.906   3.903   1.406
    8ILE     CD  111   4.975   3.776   1.260
    8ILE    HD1  112   5.065   3.765   1.302
    8ILE    HD2  113   4.947   3.689   1.220
    8ILE    HD3  114   4.979   3.846   1.189
    8ILE      C  115   4.495   3.880   1.373
    8ILE      O  116   4.427   3.791   1.320
    9VAL      N  117   4.453   4.005   1.385
    9VAL      H  118   4.513   4.073   1.428
    9VAL     CA  119   4.322   4.047   1.336
    9VAL     HA  120   4.258   3.989   1.386
    9VAL     CB  121   4.296   4.196   1.365
    9VAL     HB  122   4.366   4.251   1.321
    9VAL    CG1  123   4.161   4.238   1.310
    9VAL   HG11  124   4.145   4.335   1.330
    9VAL   HG12  125   4.159   4.224   1.211
    9VAL   HG13  126   4.088   4.183   1.352
    9VAL    CG2  127   4.302   4.222   1.515
    9VAL   HG21  128   4.285   4.319   1.533
    9VAL   HG22  129   4.233   4.167   1.562
    9VAL   HG23  130   4.393   4.198   1.549
    9VAL      C  131   4.309   4.023   1.186
    9VAL      O  132   4.383   4.079   1.106
   10LYS      N  133   4.213   3.939   1.149
   10LYS      H  134   4.151   3.901   1.218
   10LYS     CA  135   4.196   3.899   1.009
   10LYS     HA  136   4.288   3.902   0.970
   10LYS     CB  137   4.139   3.757   1.001
   10LYS    HB1  138   4.053   3.755   1.051
   10LYS    HB2  139   4.205   3.694   1.042
   10LYS     CG  140   4.112   3.709   0.859
   10LYS    HG1  141   4.195   3.719   0.804
   10LYS    HG2  142   4.039   3.765   0.819
   10LYS     CD  143   4.068   3.564   0.857
   10LYS    HD1  144   3.985   3.554   0.913
   10LYS    HD2  145   4.141   3.507   0.896
   10LYS     CE  146   4.038   3.516   0.715
   10LYS    HE1  147   4.113   3.544   0.655
   10LYS    HE2  148   3.953   3.558   0.684
   10LYS     NZ  149   4.023   3.368   0.708
   10LYS    HZ1  150   4.004   3.341   0.614
   10LYS    HZ2  151   4.108   3.325   0.738
   10LYS    HZ3  152   3.948   3.339   0.767
   10LYS      C  153   4.105   3.996   0.935
   10LYS      O  154   4.137   4.041   0.825
   11TRP      N  155   3.992   4.030   0.996
   11TRP      H  156   3.969   3.986   1.084
   11TRP     CA  157   3.900   4.127   0.940
   11TRP     HA  158   3.957   4.204   0.912
   11TRP     CB  159   3.827   4.068   0.819
   11TRP    HB1  160   3.767   3.995   0.850
   11TRP    HB2  161   3.895   4.031   0.755
   11TRP     CG  162   3.744   4.168   0.744
   11TRP    CD1  163   3.609   4.185   0.753
   11TRP    HD1  164   3.549   4.131   0.812
   11TRP    NE1  165   3.568   4.286   0.670
   11TRP    HE1  166   3.474   4.318   0.659
   11TRP    CE2  167   3.678   4.337   0.605
   11TRP    CZ2  168   3.687   4.439   0.512
   11TRP    HZ2  169   3.606   4.489   0.481
   11TRP    CH2  170   3.814   4.469   0.462
   11TRP    HH2  171   3.824   4.542   0.395
   11TRP    CZ3  172   3.925   4.400   0.504
   11TRP    HZ3  173   4.015   4.424   0.466
   11TRP    CE3  174   3.916   4.297   0.597
   11TRP    HE3  175   3.998   4.248   0.627
   11TRP    CD2  176   3.790   4.265   0.649
   11TRP      C  177   3.799   4.175   1.043
   11TRP      O  178   3.742   4.094   1.117
   12PHE      N  179   3.778   4.306   1.049
   12PHE      H  180   3.827   4.366   0.986
   12PHE     CA  181   3.684   4.364   1.144
   12PHE     HA  182   3.623   4.290   1.171
   12PHE     CB  183   3.759   4.418   1.267
   12PHE    HB1  184   3.809   4.501   1.240
   12PHE    HB2  185   3.825   4.349   1.297
   12PHE     CG  186   3.670   4.452   1.382
   12PHE    CD1  187   3.604   4.574   1.388
   12PHE    HD1  188   3.617   4.640   1.314
   12PHE    CE1  189   3.522   4.605   1.494
   12PHE    HE1  190   3.476   4.694   1.497
   12PHE     CZ  191   3.504   4.515   1.597
   12PHE     HZ  192   3.445   4.537   1.674
   12PHE    CE2  193   3.569   4.393   1.593
   12PHE    HE2  194   3.556   4.327   1.667
   12PHE    CD2  195   3.651   4.362   1.486
   12PHE    HD2  196   3.698   4.273   1.484
   12PHE      C  197   3.603   4.476   1.080
   12PHE      O  198   3.656   4.580   1.043
   13LIG     C1  199   5.283   3.909   2.104
   13LIG     C2  200   5.228   4.010   2.124
   13LIG     C3  201   5.113   4.018   2.144
   13LIG     C4  202   5.044   3.926   2.164
   13LIG     C5  203   5.085   3.818   2.184
   13LIG     C6  204   5.197   3.794   2.204
   13LIG     N1  205   5.278   3.875   2.224
   13LIG     O1  206   5.253   3.988   2.244
   13LIG     O2  207   5.146   4.028   2.264
   13LIG    CL1  208   5.054   3.958   2.284
   13LIG     H1  209   5.062   3.844   2.304
   13LIG     H2  210   5.164   3.789   2.324
   13LIG     H3  211   5.264   3.845   2.344
   13LIG     H4  212   5.272   3.959   2.364
   13LIG     H5  213   5.179   4.028   2.384
   13LIG    HN1  214   5.072   3.987   2.404
   14SOL     OW  215   0.230   0.628   0.113
   14SOL    HW1  216   0.137   0.626   0.150
   14SOL    HW2  217   0.231   0.589   0.021
   15SOL     OW  218   0.225   0.275   0.996
   15SOL    HW1  219   0.260   0.258   1.088
   15SOL    HW2  220   0.137   0.230   0.984
   16SOL     OW  221   0.019   0.368   0.647
   16SOL    HW1  222  -0.063   0.411   0.686
   16SOL    HW2  223  -0.009   0.295   0.584
   17SOL     OW  224   0.569   1.275   1.165
   17SOL    HW1  225   0.476   1.268   1.128
   17SOL    HW2  226   0.580   1.364   1.209
   18SOL     OW  227   1.555   1.511   0.703
   18SOL    HW1  228   1.498   1.495   0.784
   18SOL    HW2  229   1.496   1.521   0.623
   19SOL     OW  230   1.135   0.703   0.717
   19SOL    HW1  231   1.192   0.781   0.692
   19SOL    HW2  232   1.075   0.729   0.793
   20SOL     OW  233   1.755   0.607   0.231
   20SOL    HW1  234   1.743   0.594   0.132
   20SOL    HW2  235   1.725   0.526   0.280
   21SOL     OW  236   0.768   1.144   1.023
   21SOL    HW1  237   0.690   1.161   1.083
   21SOL    HW2  238   0.802   1.231   0.987
   22SOL     OW  239   0.850   0.798   1.823
   22SOL    HW1  240   0.846   0.874   1.888
   22SOL    HW2  241   0.872   0.834   1.732
   23SOL     OW  242   0.685   1.012   0.665
   23SOL    HW1  243   0.754   0.996   0.735
   23SOL    HW2  244   0.612   1.069   0.703
   24SOL     OW  245   0.686   1.161   1.803
   24SOL    HW1  246   0.746   1.240   1.817
   24SOL    HW2  247   0.600   1.192   1.762
   25SOL     OW  248   0.335   1.435   1.061
   25SOL    HW1  249   0.257   1.404   1.008
   25SOL    HW2  250   0.393   1.493   1.004
   26SOL     OW  251   1.460   1.505   1.339
   26SOL    HW1  252   1.484   1.599   1.365
   26SOL    HW2  253   1.444   1.451   1.421
   27SOL     OW  254   0.438   0.392   1.499
   27SOL    HW1  255   0.520   0.336   1.508
   27SOL    HW2  256   0.357   0.334   1.503
   28SOL     OW  257   1.603   0.447   0.737
   28SOL    HW1  258   1.529   0.493   0.687
   28SOL    HW2  259   1.654   0.515   0.790
   29SOL     OW  260   0.231   1.713   0.483
   29SOL    HW1  261   0.265   1.790   0.537
   29SOL    HW2  262   0.275   1.713   0.393
   30SOL     OW  263   1.127   1.341   1.690
   30SOL    HW1  264   1.174   1.341   1.778
   30SOL    HW2  265   1.079   1.254   1.679
   31SOL     OW  266   0.230   1.434   0.538
   31SOL    HW1  267   0.204   1.530   0.538
   31SOL    HW2  268   0.159   1.380   0.583
   32SOL     OW  269   0.240   1.091   0.886
   32SOL    HW1  270   0.254   1.007   0.938
   32SOL    HW2  271   0.185   1.155   0.941
   33SOL     OW  272   0.620   1.786   1.439
   33SOL    HW1  273   0.528   1.769   1.474
   33SOL    HW2  274   0.648   1.878   1.465
   34SOL     OW  275   0.606   0.964   0.123
   34SOL    HW1  276   0.613   1.048   0.069
   34SOL    HW2  277   0.652   0.977   0.211
   35SOL     OW  278   1.594   0.114   1.480
   35SOL    HW1  279   1.576   0.181   1.408
   35SOL    HW2  280   1.591   0.160   1.569
   36SOL     OW  281   0.122   0.643   0.563
   36SOL    HW1  282   0.077   0.555   0.580
   36SOL    HW2  283   0.121   0.697   0.647
   37SOL     OW  284   1.842   1.767   0.359
   37SOL    HW1  285   1.896   1.738   0.439
   37SOL    HW2  286   1.872   1.857   0.330
   38SOL     OW  287   0.027   1.596   0.117
   38SOL    HW1  288   0.008   1.500   0.138
   38SOL    HW2  289  -0.006   1.654   0.192
   39SOL     OW  290   1.689   0.922   0.612
   39SOL    HW1  291   1.784   0.893   0.620
   39SOL    HW2  292   1.681   0.987   0.537
   40SOL     OW  293   1.641   1.108   0.432
   40SOL    HW1  294   1.727   1.110   0.380
   40SOL    HW2  295   1.655   1.155   0.520
   41SOL     OW  296   0.113   0.737   1.597
   41SOL    HW1  297   0.201   0.724   1.642
   41SOL    HW2  298   0.100   0.834   1.575
   42SOL     OW  299   0.613   1.365   0.726
   42SOL    HW1  300   0.564   1.278   0.735
   42SOL    HW2  301   0.590   1.408   0.639
   43SOL     OW  302   1.293   1.228   1.423
   43SOL    HW1  303   1.330   1.155   1.365
   43SOL    HW2  304   1.345   1.233   1.508
   44NA      NA  305   1.400   0.107   2.288
   45NA      NA  306   0.613   3.227   0.726
   46CL      CL  307   0.781   2.126   1.749
   47CL      CL  308   0.561   2.084   1.147
   5.20000   5.20000   3.67695   0.00000   0.00000   0.00000   0.00000   2.60000   2.60000
